<?xml version="1.0" encoding="UTF-8"?>

<!-- generated on 2023-08-17 16:18:42 by Eclipse SUMO sumo Version 1.18.0
<configuration xmlns:xsi="http://www.w3.org/2001/XMLSchema-instance" xsi:noNamespaceSchemaLocation="http://sumo.dlr.de/xsd/sumoConfiguration.xsd">

    <input>
        <net-file value="dataset/modified_data.net.xml"/>
        <route-files value="dataset/data.rou.xml"/>
    </input>

    <output>
        <netstate-dump value="dataset/netstate-out.xml"/>
        <queue-output value="dataset/queue-out.xml"/>
        <tripinfo-output value="dataset/tripinfo-out.xml"/>
        <tripinfo-output.write-unfinished value="true"/>
    </output>

    <time>
        <begin value="0"/>
        <end value="3600"/>
    </time>

    <processing>
        <ignore-route-errors value="true"/>
    </processing>

    <report>
        <verbose value="true"/>
        <no-warnings value="true"/>
        <log value="sumo.log"/>
        <duration-log.statistics value="true"/>
        <no-step-log value="true"/>
    </report>

    <traci_server>
        <remote-port value="62063"/>
    </traci_server>

</configuration>
-->

<tripinfos xmlns:xsi="http://www.w3.org/2001/XMLSchema-instance" xsi:noNamespaceSchemaLocation="http://sumo.dlr.de/xsd/tripinfo_file.xsd">
    <tripinfo id="16" depart="2.00" departLane="109231197#1_0" departPos="5.10" departSpeed="0.00" departDelay="0.40" arrival="19.00" arrivalLane="679123319_0" arrivalPos="22.85" arrivalSpeed="10.38" duration="17.00" routeLength="109.02" waitingTime="0.00" waitingCount="0" stopTime="0.00" timeLoss="6.54" rerouteNo="0" devices="tripinfo_16" vType="DEFAULT_VEHTYPE" speedFactor="0.93" vaporized=""/>
    <tripinfo id="84" depart="9.00" departLane="-109377180#0_0" departPos="5.10" departSpeed="0.00" departDelay="0.60" arrival="32.00" arrivalLane="-109377109#11_0" arrivalPos="73.62" arrivalSpeed="20.97" duration="23.00" routeLength="274.93" waitingTime="0.00" waitingCount="0" stopTime="0.00" timeLoss="6.42" rerouteNo="0" devices="tripinfo_84" vType="DEFAULT_VEHTYPE" speedFactor="0.97" vaporized=""/>
    <tripinfo id="245" depart="25.00" departLane="-109377193_0" departPos="5.10" departSpeed="0.00" departDelay="0.50" arrival="32.00" arrivalLane="-109377193_0" arrivalPos="58.85" arrivalSpeed="13.45" duration="7.00" routeLength="53.75" waitingTime="0.00" waitingCount="0" stopTime="0.00" timeLoss="4.82" rerouteNo="0" devices="tripinfo_245" vType="DEFAULT_VEHTYPE" speedFactor="1.13" vaporized=""/>
    <tripinfo id="98" depart="10.00" departLane="109231238#0_0" departPos="5.10" departSpeed="0.00" departDelay="0.20" arrival="35.00" arrivalLane="-109231130#1_0" arrivalPos="14.89" arrivalSpeed="10.48" duration="25.00" routeLength="225.87" waitingTime="0.00" waitingCount="0" stopTime="0.00" timeLoss="7.29" rerouteNo="0" devices="tripinfo_98" vType="DEFAULT_VEHTYPE" speedFactor="1.01" vaporized=""/>
    <tripinfo id="11" depart="2.00" departLane="-225637426#10_0" departPos="5.10" departSpeed="0.00" departDelay="0.90" arrival="45.00" arrivalLane="-109377132#1_0" arrivalPos="117.35" arrivalSpeed="21.08" duration="43.00" routeLength="426.36" waitingTime="1.00" waitingCount="1" stopTime="0.00" timeLoss="19.45" rerouteNo="0" devices="tripinfo_11" vType="DEFAULT_VEHTYPE" speedFactor="1.09" vaporized=""/>
    <tripinfo id="82" depart="9.00" departLane="225875405#4_0" departPos="5.10" departSpeed="0.00" departDelay="0.80" arrival="45.00" arrivalLane="-109231197#1_0" arrivalPos="48.87" arrivalSpeed="13.57" duration="36.00" routeLength="246.56" waitingTime="6.00" waitingCount="1" stopTime="0.00" timeLoss="17.18" rerouteNo="0" devices="tripinfo_82" vType="DEFAULT_VEHTYPE" speedFactor="1.00" vaporized=""/>
    <tripinfo id="20" depart="2.00" departLane="109377219#3_0" departPos="5.10" departSpeed="0.00" departDelay="0.00" arrival="48.00" arrivalLane="-109231117_0" arrivalPos="68.07" arrivalSpeed="15.60" duration="46.00" routeLength="451.60" waitingTime="3.00" waitingCount="2" stopTime="0.00" timeLoss="23.88" rerouteNo="0" devices="tripinfo_20" vType="DEFAULT_VEHTYPE" speedFactor="1.16" vaporized=""/>
    <tripinfo id="151" depart="16.00" departLane="225637426#2_0" departPos="5.10" departSpeed="0.00" departDelay="0.90" arrival="50.00" arrivalLane="109377105_0" arrivalPos="54.18" arrivalSpeed="20.98" duration="34.00" routeLength="377.04" waitingTime="0.00" waitingCount="0" stopTime="0.00" timeLoss="16.40" rerouteNo="0" devices="tripinfo_151" vType="DEFAULT_VEHTYPE" speedFactor="1.04" vaporized=""/>
    <tripinfo id="2" depart="1.00" departLane="109377276_0" departPos="5.10" departSpeed="0.00" departDelay="0.80" arrival="52.00" arrivalLane="109377169#1_0" arrivalPos="59.24" arrivalSpeed="16.55" duration="51.00" routeLength="446.21" waitingTime="0.00" waitingCount="0" stopTime="0.00" timeLoss="24.97" rerouteNo="0" devices="tripinfo_2" vType="DEFAULT_VEHTYPE" speedFactor="1.01" vaporized=""/>
    <tripinfo id="368" depart="37.00" departLane="-225637426#3_0" departPos="5.10" departSpeed="0.00" departDelay="0.20" arrival="55.00" arrivalLane="-225637426#0_0" arrivalPos="95.03" arrivalSpeed="21.77" duration="18.00" routeLength="274.49" waitingTime="0.00" waitingCount="0" stopTime="0.00" timeLoss="5.91" rerouteNo="0" devices="tripinfo_368" vType="DEFAULT_VEHTYPE" speedFactor="1.03" vaporized=""/>
    <tripinfo id="36" depart="4.00" departLane="225877307#1_0" departPos="5.10" departSpeed="0.00" departDelay="0.40" arrival="56.00" arrivalLane="-109721898_0" arrivalPos="114.82" arrivalSpeed="12.95" duration="52.00" routeLength="639.89" waitingTime="0.00" waitingCount="0" stopTime="0.00" timeLoss="12.18" rerouteNo="0" devices="tripinfo_36" vType="DEFAULT_VEHTYPE" speedFactor="1.02" vaporized=""/>
    <tripinfo id="172" depart="19.00" departLane="-1121376325_0" departPos="5.10" departSpeed="0.00" departDelay="1.80" arrival="60.00" arrivalLane="225877302#1_0" arrivalPos="38.13" arrivalSpeed="10.70" duration="41.00" routeLength="378.07" waitingTime="0.00" waitingCount="0" stopTime="0.00" timeLoss="18.56" rerouteNo="0" devices="tripinfo_172" vType="DEFAULT_VEHTYPE" speedFactor="1.09" vaporized=""/>
    <tripinfo id="13" depart="2.00" departLane="-109231255_0" departPos="5.10" departSpeed="0.00" departDelay="0.70" arrival="61.00" arrivalLane="-109231262#3_0" arrivalPos="28.57" arrivalSpeed="16.68" duration="59.00" routeLength="463.74" waitingTime="4.00" waitingCount="1" stopTime="0.00" timeLoss="28.92" rerouteNo="0" devices="tripinfo_13" vType="DEFAULT_VEHTYPE" speedFactor="1.05" vaporized=""/>
    <tripinfo id="52" depart="6.00" departLane="-1096463957_0" departPos="5.10" departSpeed="0.00" departDelay="0.80" arrival="62.00" arrivalLane="109377147_0" arrivalPos="94.46" arrivalSpeed="21.94" duration="56.00" routeLength="592.75" waitingTime="1.00" waitingCount="1" stopTime="0.00" timeLoss="27.02" rerouteNo="0" devices="tripinfo_52" vType="DEFAULT_VEHTYPE" speedFactor="1.17" vaporized=""/>
    <tripinfo id="5" depart="1.00" departLane="-109377186_0" departPos="5.10" departSpeed="0.00" departDelay="0.50" arrival="64.00" arrivalLane="109231130#2_0" arrivalPos="49.01" arrivalSpeed="5.77" duration="63.00" routeLength="762.00" waitingTime="0.00" waitingCount="0" stopTime="0.00" timeLoss="15.83" rerouteNo="0" devices="tripinfo_5" vType="DEFAULT_VEHTYPE" speedFactor="0.83" vaporized=""/>
    <tripinfo id="289" depart="29.00" departLane="-678668847_0" departPos="5.10" departSpeed="0.00" departDelay="0.10" arrival="66.00" arrivalLane="109388694#3_0" arrivalPos="30.85" arrivalSpeed="7.09" duration="37.00" routeLength="263.33" waitingTime="7.00" waitingCount="1" stopTime="0.00" timeLoss="21.96" rerouteNo="0" devices="tripinfo_289" vType="DEFAULT_VEHTYPE" speedFactor="0.99" vaporized=""/>
    <tripinfo id="44" depart="5.00" departLane="-109231254#2_0" departPos="5.10" departSpeed="0.00" departDelay="0.60" arrival="68.00" arrivalLane="-109231124#0_0" arrivalPos="38.68" arrivalSpeed="14.28" duration="63.00" routeLength="499.09" waitingTime="15.00" waitingCount="1" stopTime="0.00" timeLoss="27.50" rerouteNo="0" devices="tripinfo_44" vType="DEFAULT_VEHTYPE" speedFactor="1.04" vaporized=""/>
    <tripinfo id="125" depart="13.00" departLane="-109721869_0" departPos="5.10" departSpeed="0.00" departDelay="0.50" arrival="69.00" arrivalLane="109721655#0_0" arrivalPos="33.90" arrivalSpeed="13.03" duration="56.00" routeLength="470.76" waitingTime="2.00" waitingCount="2" stopTime="0.00" timeLoss="21.71" rerouteNo="0" devices="tripinfo_125" vType="DEFAULT_VEHTYPE" speedFactor="1.02" vaporized=""/>
    <tripinfo id="35" depart="4.00" departLane="-109377169#0_0" departPos="5.10" departSpeed="0.00" departDelay="0.50" arrival="73.00" arrivalLane="592036399#0_0" arrivalPos="23.58" arrivalSpeed="10.33" duration="69.00" routeLength="883.44" waitingTime="0.00" waitingCount="0" stopTime="0.00" timeLoss="25.54" rerouteNo="0" devices="tripinfo_35" vType="DEFAULT_VEHTYPE" speedFactor="0.99" vaporized=""/>
    <tripinfo id="553" depart="56.00" departLane="109377109#15_0" departPos="5.10" departSpeed="0.00" departDelay="0.70" arrival="73.00" arrivalLane="-225652598_0" arrivalPos="61.16" arrivalSpeed="12.37" duration="17.00" routeLength="144.33" waitingTime="0.00" waitingCount="0" stopTime="0.00" timeLoss="6.85" rerouteNo="0" devices="tripinfo_553" vType="DEFAULT_VEHTYPE" speedFactor="0.97" vaporized=""/>
    <tripinfo id="26" depart="3.00" departLane="-1096463957_0" departPos="5.10" departSpeed="0.00" departDelay="0.40" arrival="74.00" arrivalLane="458946957#5_0" arrivalPos="196.43" arrivalSpeed="18.54" duration="71.00" routeLength="893.66" waitingTime="3.00" waitingCount="1" stopTime="0.00" timeLoss="20.01" rerouteNo="0" devices="tripinfo_26" vType="DEFAULT_VEHTYPE" speedFactor="0.87" vaporized=""/>
    <tripinfo id="119" depart="12.00" departLane="109377109#10_0" departPos="5.10" departSpeed="0.00" departDelay="0.10" arrival="75.00" arrivalLane="109377132#0_0" arrivalPos="65.99" arrivalSpeed="16.39" duration="63.00" routeLength="586.60" waitingTime="2.00" waitingCount="1" stopTime="0.00" timeLoss="27.23" rerouteNo="0" devices="tripinfo_119" vType="DEFAULT_VEHTYPE" speedFactor="1.00" vaporized=""/>
    <tripinfo id="19" depart="2.00" departLane="225875405#6_0" departPos="5.10" departSpeed="0.00" departDelay="0.10" arrival="76.00" arrivalLane="109231309#0_0" arrivalPos="59.33" arrivalSpeed="17.67" duration="74.00" routeLength="529.25" waitingTime="14.00" waitingCount="1" stopTime="0.00" timeLoss="35.61" rerouteNo="0" devices="tripinfo_19" vType="DEFAULT_VEHTYPE" speedFactor="0.94" vaporized=""/>
    <tripinfo id="153" depart="19.00" departLane="-109721841#0_0" departPos="5.10" departSpeed="0.00" departDelay="3.70" arrival="78.00" arrivalLane="25339355#4_0" arrivalPos="38.35" arrivalSpeed="10.49" duration="59.00" routeLength="411.19" waitingTime="10.00" waitingCount="1" stopTime="0.00" timeLoss="25.29" rerouteNo="0" devices="tripinfo_153" vType="DEFAULT_VEHTYPE" speedFactor="1.00" vaporized=""/>
    <tripinfo id="169" depart="17.00" departLane="109095094_0" departPos="5.10" departSpeed="0.00" departDelay="0.10" arrival="79.00" arrivalLane="-109721841#0_0" arrivalPos="124.67" arrivalSpeed="13.22" duration="62.00" routeLength="570.63" waitingTime="6.00" waitingCount="1" stopTime="0.00" timeLoss="17.11" rerouteNo="0" devices="tripinfo_169" vType="DEFAULT_VEHTYPE" speedFactor="1.03" vaporized=""/>
    <tripinfo id="348" depart="37.00" departLane="109377158#1_0" departPos="5.10" departSpeed="0.00" departDelay="2.20" arrival="80.00" arrivalLane="458946957#3_0" arrivalPos="107.84" arrivalSpeed="11.59" duration="43.00" routeLength="582.52" waitingTime="0.00" waitingCount="0" stopTime="0.00" timeLoss="19.25" rerouteNo="0" devices="tripinfo_348" vType="DEFAULT_VEHTYPE" speedFactor="1.16" vaporized=""/>
    <tripinfo id="21" depart="3.00" departLane="-109377219#2_0" departPos="5.10" departSpeed="0.00" departDelay="0.90" arrival="81.00" arrivalLane="-109721717#0_0" arrivalPos="15.56" arrivalSpeed="10.34" duration="78.00" routeLength="676.68" waitingTime="20.00" waitingCount="2" stopTime="0.00" timeLoss="43.53" rerouteNo="0" devices="tripinfo_21" vType="DEFAULT_VEHTYPE" speedFactor="1.02" vaporized=""/>
    <tripinfo id="573" depart="58.00" departLane="-109231231#2_0" departPos="5.10" departSpeed="0.00" departDelay="0.70" arrival="81.00" arrivalLane="-109231130#2_0" arrivalPos="50.03" arrivalSpeed="13.00" duration="23.00" routeLength="212.05" waitingTime="0.00" waitingCount="0" stopTime="0.00" timeLoss="8.79" rerouteNo="0" devices="tripinfo_573" vType="DEFAULT_VEHTYPE" speedFactor="1.02" vaporized=""/>
    <tripinfo id="386" depart="39.00" departLane="109231238#2_0" departPos="5.10" departSpeed="0.00" departDelay="0.40" arrival="82.00" arrivalLane="-109231255_0" arrivalPos="32.17" arrivalSpeed="13.80" duration="43.00" routeLength="241.42" waitingTime="6.00" waitingCount="2" stopTime="0.00" timeLoss="24.42" rerouteNo="0" devices="tripinfo_386" vType="DEFAULT_VEHTYPE" speedFactor="1.01" vaporized=""/>
    <tripinfo id="175" depart="18.00" departLane="883032636#1_0" departPos="5.10" departSpeed="0.00" departDelay="0.50" arrival="85.00" arrivalLane="109231231#0_0" arrivalPos="87.91" arrivalSpeed="18.79" duration="67.00" routeLength="601.03" waitingTime="6.00" waitingCount="1" stopTime="0.00" timeLoss="28.40" rerouteNo="0" devices="tripinfo_175" vType="DEFAULT_VEHTYPE" speedFactor="1.14" vaporized=""/>
    <tripinfo id="513" depart="52.00" departLane="-109377109#4_0" departPos="5.10" departSpeed="0.00" departDelay="0.70" arrival="85.00" arrivalLane="-109377109#1_0" arrivalPos="62.14" arrivalSpeed="5.48" duration="33.00" routeLength="229.21" waitingTime="8.00" waitingCount="1" stopTime="0.00" timeLoss="24.07" rerouteNo="0" devices="tripinfo_513" vType="DEFAULT_VEHTYPE" speedFactor="1.18" vaporized=""/>
    <tripinfo id="334" depart="34.00" departLane="109231142#4_0" departPos="5.10" departSpeed="0.00" departDelay="0.60" arrival="86.00" arrivalLane="109095101#1_0" arrivalPos="39.21" arrivalSpeed="11.35" duration="52.00" routeLength="502.40" waitingTime="0.00" waitingCount="0" stopTime="0.00" timeLoss="14.15" rerouteNo="0" devices="tripinfo_334" vType="DEFAULT_VEHTYPE" speedFactor="0.87" vaporized=""/>
    <tripinfo id="642" depart="65.00" departLane="25339355#4_0" departPos="5.10" departSpeed="0.00" departDelay="0.80" arrival="86.00" arrivalLane="225877310_0" arrivalPos="21.86" arrivalSpeed="11.30" duration="21.00" routeLength="157.38" waitingTime="0.00" waitingCount="0" stopTime="0.00" timeLoss="6.61" rerouteNo="0" devices="tripinfo_642" vType="DEFAULT_VEHTYPE" speedFactor="0.90" vaporized=""/>
    <tripinfo id="750" depart="75.00" departLane="-109377109#2_0" departPos="5.10" departSpeed="0.00" departDelay="0.00" arrival="86.00" arrivalLane="109377116_0" arrivalPos="46.37" arrivalSpeed="12.43" duration="11.00" routeLength="71.54" waitingTime="0.00" waitingCount="0" stopTime="0.00" timeLoss="4.52" rerouteNo="0" devices="tripinfo_750" vType="DEFAULT_VEHTYPE" speedFactor="0.93" vaporized=""/>
    <tripinfo id="199" depart="20.00" departLane="109377153#4_0" departPos="5.10" departSpeed="0.00" departDelay="0.10" arrival="88.00" arrivalLane="109098798#9_0" arrivalPos="43.12" arrivalSpeed="17.51" duration="68.00" routeLength="481.06" waitingTime="10.00" waitingCount="3" stopTime="0.00" timeLoss="39.56" rerouteNo="0" devices="tripinfo_199" vType="DEFAULT_VEHTYPE" speedFactor="0.84" vaporized=""/>
    <tripinfo id="221" depart="23.00" departLane="109377109#11_0" departPos="5.10" departSpeed="0.00" departDelay="0.90" arrival="88.00" arrivalLane="592044345#1_0" arrivalPos="94.11" arrivalSpeed="12.56" duration="65.00" routeLength="697.06" waitingTime="0.00" waitingCount="0" stopTime="0.00" timeLoss="19.63" rerouteNo="0" devices="tripinfo_221" vType="DEFAULT_VEHTYPE" speedFactor="0.97" vaporized=""/>
    <tripinfo id="321" depart="33.00" departLane="109377211_0" departPos="5.10" departSpeed="0.00" departDelay="0.90" arrival="88.00" arrivalLane="-109377105_0" arrivalPos="54.18" arrivalSpeed="15.60" duration="55.00" routeLength="450.81" waitingTime="4.00" waitingCount="1" stopTime="0.00" timeLoss="27.28" rerouteNo="0" devices="tripinfo_321" vType="DEFAULT_VEHTYPE" speedFactor="0.90" vaporized=""/>
    <tripinfo id="27" depart="3.00" departLane="109377147_0" departPos="5.10" departSpeed="0.00" departDelay="0.30" arrival="89.00" arrivalLane="109377117_0" arrivalPos="79.96" arrivalSpeed="11.58" duration="86.00" routeLength="624.42" waitingTime="15.00" waitingCount="2" stopTime="0.00" timeLoss="48.95" rerouteNo="0" devices="tripinfo_27" vType="DEFAULT_VEHTYPE" speedFactor="0.92" vaporized=""/>
    <tripinfo id="631" depart="64.00" departLane="-225637426#13_0" departPos="5.10" departSpeed="0.00" departDelay="0.90" arrival="90.00" arrivalLane="109377252#1_0" arrivalPos="42.68" arrivalSpeed="9.89" duration="26.00" routeLength="294.46" waitingTime="0.00" waitingCount="0" stopTime="0.00" timeLoss="9.98" rerouteNo="0" devices="tripinfo_631" vType="DEFAULT_VEHTYPE" speedFactor="1.06" vaporized=""/>
    <tripinfo id="17" depart="2.00" departLane="-225877311#1_0" departPos="5.10" departSpeed="0.00" departDelay="0.30" arrival="91.00" arrivalLane="109231262#5_0" arrivalPos="70.63" arrivalSpeed="19.23" duration="89.00" routeLength="810.83" waitingTime="20.00" waitingCount="1" stopTime="0.00" timeLoss="43.02" rerouteNo="0" devices="tripinfo_17" vType="DEFAULT_VEHTYPE" speedFactor="0.88" vaporized=""/>
    <tripinfo id="77" depart="8.00" departLane="-109231305#0_0" departPos="5.10" departSpeed="0.00" departDelay="0.30" arrival="91.00" arrivalLane="-109377219#0_0" arrivalPos="116.56" arrivalSpeed="8.87" duration="83.00" routeLength="746.88" waitingTime="12.00" waitingCount="3" stopTime="0.00" timeLoss="46.67" rerouteNo="0" devices="tripinfo_77" vType="DEFAULT_VEHTYPE" speedFactor="1.03" vaporized=""/>
    <tripinfo id="152" depart="16.00" departLane="-109377109#6_0" departPos="5.10" departSpeed="0.00" departDelay="0.80" arrival="91.00" arrivalLane="-109377106_0" arrivalPos="74.99" arrivalSpeed="10.29" duration="75.00" routeLength="593.36" waitingTime="9.00" waitingCount="2" stopTime="0.00" timeLoss="45.03" rerouteNo="0" devices="tripinfo_152" vType="DEFAULT_VEHTYPE" speedFactor="0.96" vaporized=""/>
    <tripinfo id="282" depart="36.00" departLane="225652605#0_0" departPos="5.10" departSpeed="0.00" departDelay="7.80" arrival="91.00" arrivalLane="225637426#10_0" arrivalPos="120.97" arrivalSpeed="17.96" duration="55.00" routeLength="328.04" waitingTime="10.00" waitingCount="2" stopTime="0.00" timeLoss="30.38" rerouteNo="0" devices="tripinfo_282" vType="DEFAULT_VEHTYPE" speedFactor="0.85" vaporized=""/>
    <tripinfo id="757" depart="76.00" departLane="109231290#3_0" departPos="5.10" departSpeed="0.00" departDelay="0.30" arrival="91.00" arrivalLane="109231221#1_0" arrivalPos="56.64" arrivalSpeed="10.52" duration="15.00" routeLength="104.32" waitingTime="0.00" waitingCount="0" stopTime="0.00" timeLoss="4.01" rerouteNo="0" devices="tripinfo_757" vType="DEFAULT_VEHTYPE" speedFactor="0.82" vaporized=""/>
    <tripinfo id="136" depart="14.00" departLane="109377158#3_0" departPos="5.10" departSpeed="0.00" departDelay="0.40" arrival="92.00" arrivalLane="458947282#1_0" arrivalPos="116.64" arrivalSpeed="26.18" duration="78.00" routeLength="1207.90" waitingTime="0.00" waitingCount="0" stopTime="0.00" timeLoss="31.47" rerouteNo="0" devices="tripinfo_136" vType="DEFAULT_VEHTYPE" speedFactor="1.23" vaporized=""/>
    <tripinfo id="203" depart="21.00" departLane="-109231231#2_0" departPos="5.10" departSpeed="0.00" departDelay="0.70" arrival="94.00" arrivalLane="109231148#1_0" arrivalPos="37.47" arrivalSpeed="6.25" duration="73.00" routeLength="361.68" waitingTime="24.00" waitingCount="1" stopTime="0.00" timeLoss="41.15" rerouteNo="0" devices="tripinfo_203" vType="DEFAULT_VEHTYPE" speedFactor="0.83" vaporized=""/>
    <tripinfo id="142" depart="15.00" departLane="109098837#1_0" departPos="5.10" departSpeed="0.00" departDelay="0.80" arrival="95.00" arrivalLane="25339355#9_2" arrivalPos="66.84" arrivalSpeed="12.34" duration="80.00" routeLength="458.52" waitingTime="28.00" waitingCount="2" stopTime="0.00" timeLoss="50.51" rerouteNo="0" devices="tripinfo_142" vType="DEFAULT_VEHTYPE" speedFactor="1.11" vaporized=""/>
    <tripinfo id="861" depart="87.00" departLane="109721775#0_0" departPos="5.10" departSpeed="0.00" departDelay="0.90" arrival="95.00" arrivalLane="109721775#1_0" arrivalPos="17.24" arrivalSpeed="16.21" duration="8.00" routeLength="69.58" waitingTime="0.00" waitingCount="0" stopTime="0.00" timeLoss="3.67" rerouteNo="0" devices="tripinfo_861" vType="DEFAULT_VEHTYPE" speedFactor="0.81" vaporized=""/>
    <tripinfo id="59" depart="6.00" departLane="109377109#8_0" departPos="5.10" departSpeed="0.00" departDelay="0.10" arrival="97.00" arrivalLane="-109377119#1_0" arrivalPos="37.11" arrivalSpeed="13.25" duration="91.00" routeLength="622.90" waitingTime="22.00" waitingCount="1" stopTime="0.00" timeLoss="51.99" rerouteNo="0" devices="tripinfo_59" vType="DEFAULT_VEHTYPE" speedFactor="1.02" vaporized=""/>
    <tripinfo id="104" depart="11.00" departLane="-226346742_0" departPos="5.10" departSpeed="0.00" departDelay="0.60" arrival="97.00" arrivalLane="883032637#10_0" arrivalPos="25.52" arrivalSpeed="10.35" duration="86.00" routeLength="881.38" waitingTime="1.00" waitingCount="1" stopTime="0.00" timeLoss="28.49" rerouteNo="0" devices="tripinfo_104" vType="DEFAULT_VEHTYPE" speedFactor="0.97" vaporized=""/>
    <tripinfo id="243" depart="25.00" departLane="-592044345#0_0" departPos="5.10" departSpeed="0.00" departDelay="0.70" arrival="97.00" arrivalLane="109721648#7_0" arrivalPos="18.64" arrivalSpeed="15.85" duration="72.00" routeLength="451.08" waitingTime="18.00" waitingCount="1" stopTime="0.00" timeLoss="35.56" rerouteNo="0" devices="tripinfo_243" vType="DEFAULT_VEHTYPE" speedFactor="0.88" vaporized=""/>
    <tripinfo id="90" depart="9.00" departLane="109377262_0" departPos="5.10" departSpeed="0.00" departDelay="0.00" arrival="99.00" arrivalLane="109377167_0" arrivalPos="74.01" arrivalSpeed="19.64" duration="90.00" routeLength="657.87" waitingTime="23.00" waitingCount="4" stopTime="0.00" timeLoss="57.27" rerouteNo="0" devices="tripinfo_90" vType="DEFAULT_VEHTYPE" speedFactor="1.02" vaporized=""/>
    <tripinfo id="349" depart="35.00" departLane="-665500256#1_0" departPos="5.10" departSpeed="0.00" departDelay="0.10" arrival="99.00" arrivalLane="109231254#1_0" arrivalPos="23.37" arrivalSpeed="12.92" duration="64.00" routeLength="360.97" waitingTime="21.00" waitingCount="2" stopTime="0.00" timeLoss="38.01" rerouteNo="0" devices="tripinfo_349" vType="DEFAULT_VEHTYPE" speedFactor="1.02" vaporized=""/>
    <tripinfo id="38" depart="4.00" departLane="34169993#2_0" departPos="5.10" departSpeed="0.00" departDelay="0.20" arrival="101.00" arrivalLane="109098798#4_0" arrivalPos="46.41" arrivalSpeed="7.85" duration="97.00" routeLength="1651.50" waitingTime="10.00" waitingCount="2" stopTime="0.00" timeLoss="43.86" rerouteNo="0" devices="tripinfo_38" vType="DEFAULT_VEHTYPE" speedFactor="1.18" vaporized=""/>
    <tripinfo id="39" depart="4.00" departLane="-109391495#0_0" departPos="5.10" departSpeed="0.00" departDelay="0.10" arrival="101.00" arrivalLane="-109377261_0" arrivalPos="100.57" arrivalSpeed="14.43" duration="97.00" routeLength="1023.68" waitingTime="9.00" waitingCount="2" stopTime="0.00" timeLoss="48.00" rerouteNo="0" devices="tripinfo_39" vType="DEFAULT_VEHTYPE" speedFactor="1.10" vaporized=""/>
    <tripinfo id="102" depart="11.00" departLane="109098827_0" departPos="5.10" departSpeed="0.00" departDelay="0.80" arrival="101.00" arrivalLane="-109377180#1_0" arrivalPos="53.24" arrivalSpeed="14.41" duration="90.00" routeLength="856.34" waitingTime="16.00" waitingCount="2" stopTime="0.00" timeLoss="48.80" rerouteNo="0" devices="tripinfo_102" vType="DEFAULT_VEHTYPE" speedFactor="1.06" vaporized=""/>
    <tripinfo id="324" depart="35.00" departLane="109098798#4_0" departPos="5.10" departSpeed="0.00" departDelay="2.60" arrival="101.00" arrivalLane="102679078_0" arrivalPos="72.25" arrivalSpeed="14.29" duration="66.00" routeLength="594.71" waitingTime="8.00" waitingCount="2" stopTime="0.00" timeLoss="37.91" rerouteNo="0" devices="tripinfo_324" vType="DEFAULT_VEHTYPE" speedFactor="1.07" vaporized=""/>
    <tripinfo id="233" depart="24.00" departLane="-109377219#4_0" departPos="5.10" departSpeed="0.00" departDelay="0.70" arrival="103.00" arrivalLane="109377219#1_0" arrivalPos="103.68" arrivalSpeed="8.19" duration="79.00" routeLength="573.24" waitingTime="15.00" waitingCount="2" stopTime="0.00" timeLoss="51.97" rerouteNo="0" devices="tripinfo_233" vType="DEFAULT_VEHTYPE" speedFactor="1.11" vaporized=""/>
    <tripinfo id="377" depart="38.00" departLane="109231225#1_0" departPos="5.10" departSpeed="0.00" departDelay="0.30" arrival="104.00" arrivalLane="-592036399#1_0" arrivalPos="39.50" arrivalSpeed="11.50" duration="66.00" routeLength="442.98" waitingTime="15.00" waitingCount="1" stopTime="0.00" timeLoss="29.95" rerouteNo="0" devices="tripinfo_377" vType="DEFAULT_VEHTYPE" speedFactor="0.90" vaporized=""/>
    <tripinfo id="6" depart="1.00" departLane="-109098840#0_0" departPos="5.10" departSpeed="0.00" departDelay="0.40" arrival="105.00" arrivalLane="-109377163#3_0" arrivalPos="46.79" arrivalSpeed="4.53" duration="104.00" routeLength="488.90" waitingTime="44.00" waitingCount="4" stopTime="0.00" timeLoss="78.18" rerouteNo="0" devices="tripinfo_6" vType="DEFAULT_VEHTYPE" speedFactor="1.05" vaporized=""/>
    <tripinfo id="498" depart="50.00" departLane="592036399#1_0" departPos="5.10" departSpeed="0.00" departDelay="0.20" arrival="105.00" arrivalLane="225875405#5_0" arrivalPos="38.93" arrivalSpeed="13.68" duration="55.00" routeLength="229.20" waitingTime="16.00" waitingCount="3" stopTime="0.00" timeLoss="36.65" rerouteNo="0" devices="tripinfo_498" vType="DEFAULT_VEHTYPE" speedFactor="0.94" vaporized=""/>
    <tripinfo id="504" depart="51.00" departLane="109377158#2_0" departPos="5.10" departSpeed="0.00" departDelay="0.60" arrival="105.00" arrivalLane="109377147_0" arrivalPos="94.46" arrivalSpeed="23.13" duration="54.00" routeLength="739.58" waitingTime="0.00" waitingCount="0" stopTime="0.00" timeLoss="20.00" rerouteNo="0" devices="tripinfo_504" vType="DEFAULT_VEHTYPE" speedFactor="1.08" vaporized=""/>
    <tripinfo id="29" depart="3.00" departLane="-109377132#4_0" departPos="5.10" departSpeed="0.00" departDelay="0.10" arrival="106.00" arrivalLane="-34169993#1_0" arrivalPos="32.42" arrivalSpeed="13.33" duration="103.00" routeLength="870.70" waitingTime="16.00" waitingCount="3" stopTime="0.00" timeLoss="58.46" rerouteNo="0" devices="tripinfo_29" vType="DEFAULT_VEHTYPE" speedFactor="1.13" vaporized=""/>
    <tripinfo id="124" depart="13.00" departLane="109377163#0_0" departPos="5.10" departSpeed="0.00" departDelay="0.60" arrival="106.00" arrivalLane="-109721800_0" arrivalPos="69.93" arrivalSpeed="13.73" duration="93.00" routeLength="908.40" waitingTime="7.00" waitingCount="2" stopTime="0.00" timeLoss="48.43" rerouteNo="0" devices="tripinfo_124" vType="DEFAULT_VEHTYPE" speedFactor="1.03" vaporized=""/>
    <tripinfo id="212" depart="22.00" departLane="109101170#1_0" departPos="5.10" departSpeed="0.00" departDelay="0.80" arrival="106.00" arrivalLane="-109377252#0_0" arrivalPos="44.31" arrivalSpeed="5.11" duration="84.00" routeLength="379.66" waitingTime="28.00" waitingCount="4" stopTime="0.00" timeLoss="60.19" rerouteNo="0" devices="tripinfo_212" vType="DEFAULT_VEHTYPE" speedFactor="0.96" vaporized=""/>
    <tripinfo id="53" depart="6.00" departLane="-109231290#3_0" departPos="5.10" departSpeed="0.00" departDelay="0.70" arrival="108.00" arrivalLane="-679123849_0" arrivalPos="37.72" arrivalSpeed="8.33" duration="102.00" routeLength="825.33" waitingTime="7.00" waitingCount="1" stopTime="0.00" timeLoss="55.12" rerouteNo="0" devices="tripinfo_53" vType="DEFAULT_VEHTYPE" speedFactor="1.02" vaporized=""/>
    <tripinfo id="417" depart="47.00" departLane="109377153#4_0" departPos="5.10" departSpeed="0.00" departDelay="5.30" arrival="108.00" arrivalLane="-109377132#1_0" arrivalPos="117.35" arrivalSpeed="21.47" duration="61.00" routeLength="650.18" waitingTime="1.00" waitingCount="1" stopTime="0.00" timeLoss="30.20" rerouteNo="0" devices="tripinfo_417" vType="DEFAULT_VEHTYPE" speedFactor="1.02" vaporized=""/>
    <tripinfo id="72" depart="8.00" departLane="-665500256#0_0" departPos="5.10" departSpeed="0.00" departDelay="0.80" arrival="110.00" arrivalLane="-109377177_0" arrivalPos="123.92" arrivalSpeed="20.90" duration="102.00" routeLength="787.27" waitingTime="5.00" waitingCount="3" stopTime="0.00" timeLoss="60.70" rerouteNo="0" devices="tripinfo_72" vType="DEFAULT_VEHTYPE" speedFactor="0.97" vaporized=""/>
    <tripinfo id="148" depart="15.00" departLane="-665500257#1_0" departPos="5.10" departSpeed="0.00" departDelay="0.20" arrival="110.00" arrivalLane="-109095101#1_0" arrivalPos="38.35" arrivalSpeed="11.74" duration="95.00" routeLength="753.75" waitingTime="6.00" waitingCount="1" stopTime="0.00" timeLoss="33.30" rerouteNo="0" devices="tripinfo_148" vType="DEFAULT_VEHTYPE" speedFactor="0.89" vaporized=""/>
    <tripinfo id="433" depart="46.00" departLane="-109377109#4_0" departPos="5.10" departSpeed="0.00" departDelay="2.70" arrival="110.00" arrivalLane="109231225#0_0" arrivalPos="62.79" arrivalSpeed="11.58" duration="64.00" routeLength="496.29" waitingTime="14.00" waitingCount="1" stopTime="0.00" timeLoss="33.24" rerouteNo="0" devices="tripinfo_433" vType="DEFAULT_VEHTYPE" speedFactor="0.92" vaporized=""/>